BEGIN_CFG
 Size
    34
 Supercell
        11.351600      0.000000      0.000000
         0.000000     10.310295      0.000000
         0.000000      0.000000      8.454286
 AtomData:  id type       cartes_x      cartes_y      cartes_z           fx          fy          fz
             1    1      -8.812540     -7.574570     -1.577700     0.526236   -1.043623   -0.345110
             2    1      -0.551223     -6.483240     -0.568720    -0.062785   -0.224677    0.122300
             3    1     -10.628200     -6.924200     -3.415190    19.468994  -69.647928  -14.108040
             4    1      -5.616920     -8.707670     -6.731360    -0.519043   -0.054573    0.023364
             5    0      -7.065860     -8.903590     -3.855840    -0.113767   -0.190520   -0.267412
             6    1      -7.944370     -6.314570     -5.333910     0.035767   -0.059523   -0.109642
             7    1      -6.756780     -9.353730     -1.036530     0.020645   -0.143887    0.391335
             8    1      -9.958810     -8.465040     -7.456020    -0.011338    0.364370   -0.556077
             9    1     -10.510300    -10.015900     -5.017370    -0.230604   -0.270679    0.339526
            10    1     -11.001400     -5.568290     -3.149130   -19.241785   70.378452   13.568664
            11    1      -5.090280     -6.953420     -4.398720    -0.053180   -0.407462   -0.879262
            12    1      -0.932626     -7.472150     -5.647250     0.005954    0.086814    0.378442
            13    0      -4.135829     -8.041710     -1.135620    -0.173939    0.030328   -0.357778
            14    1      -3.597550     -9.586500     -4.621360     0.191497   -0.380876    0.271999
            15    1      -2.558640     -6.429620     -3.439610    -0.123360   -0.322069    0.618294
            16    1      -1.940440     -8.962050     -7.670119     0.185670   -0.574439   -0.166596
            17    1      -3.595800     -6.093550     -6.706790    -0.432163   -0.441137   -0.049141
            18    1      -6.834520     -3.955670     -6.316490    -0.671832   -0.361647    0.046017
            19    0      -8.560879     -3.316070     -4.118540    -0.370838   -0.147145    0.135806
            20    0     -10.654600     -1.565330     -0.048777    -0.308993   -0.119822    0.186630
            21    0      -6.518610     -2.878580     -0.164901    -0.153921    0.090978   -0.387981
            22    1      -7.758599     -1.099320     -6.262900     0.024720   -0.227408    0.046283
            23    1      -8.559820     -5.310200     -0.288828    -0.047076    1.014895    0.484663
            24    1      -8.881650     -0.806554     -2.115800    -0.196954   -0.229964   -0.240771
            25    1      -2.191099     -4.410760     -5.152980     0.985065    1.004782    0.128789
            26    0      -1.363510     -1.868551     -6.265069    -0.144267    0.177023    0.014746
            27    0      -5.586039     -1.817650     -3.087720    -0.244871    0.028195   -0.149876
            28    1      -3.025700     -4.812990     -0.726320     0.250177    0.674389   -0.304854
            29    1      -1.249710     -9.421610     -2.198330     0.533842   -0.003741    0.067837
            30    1      -3.893240     -1.351720     -0.648746     0.561362    0.270959    0.274021
            31    1      -1.418550     -2.439400     -2.827200     0.338241   -0.292345   -0.218905
            32    1     -11.216200     -4.397260     -7.020860     0.094689   -0.266966    0.338623
            33    1      -4.416410     -2.947489     -5.794790     0.264844    0.692492    0.145901
            34    1      -6.175279     -5.523110     -2.440680    -0.386987    0.596754    0.558203
 Energy
     -28836.986963560357
 PlusStress:  xx          yy          zz          yz          xz          xy
        58.82957   149.34652    64.89559    19.86423    -6.87549   -23.19568
 Feature   EFS_by	Qe
 Feature   mindist	1.431278
END_CFG

